           3
Step 0, Total E=   -0.034904094
Ar    0.000000000    0.000000000    0.000000000
Ar    0.000000000    0.000000000    0.500000000
Ar    0.100000000    0.200000000   -0.500000000
  3
Step:    1; Total E =   -0.034904053
Ar    0.000012310    0.000024620    0.000055323
Ar    0.000000091    0.000000183    0.499882213
Ar    0.099987599    0.199975197   -0.499937536
  3
Step:    2; Total E =   -0.034903931
Ar    0.000049238    0.000098476    0.000221708
Ar    0.000000371    0.000000742    0.499528389
Ar    0.099950391    0.199900781   -0.499750097
  3
Step:    3; Total E =   -0.034903722
Ar    0.000110777    0.000221554    0.000500406
Ar    0.000000858    0.000001715    0.498937132
Ar    0.099888365    0.199776730   -0.499437538
  3
Step:    4; Total E =   -0.034903419
Ar    0.000196914    0.000393829    0.000893529
Ar    0.000001581    0.000003163    0.498106090
Ar    0.099801504    0.199603008   -0.498999619
  3
Step:    5; Total E =   -0.034903010
Ar    0.000307630    0.000615260    0.001404088
Ar    0.000002586    0.000005173    0.497031920
Ar    0.099689784    0.199379567   -0.498436008
  3
Step:    6; Total E =   -0.034902480
Ar    0.000442895    0.000885790    0.002036045
Ar    0.000003931    0.000007863    0.495710238
Ar    0.099553174    0.199106347   -0.497746282
  3
Step:    7; Total E =   -0.034901808
Ar    0.000602668    0.001205337    0.002794390
Ar    0.000005691    0.000011382    0.494135543
Ar    0.099391641    0.198783282   -0.496929932
  3
Step:    8; Total E =   -0.034900968
Ar    0.000786893    0.001573787    0.003685231
Ar    0.000007958    0.000015917    0.492301136
Ar    0.099205148    0.198410297   -0.495986367
  3
Step:    9; Total E =   -0.034899926
Ar    0.000995493    0.001990986    0.004715908
Ar    0.000010848    0.000021696    0.490199012
Ar    0.098993659    0.197987317   -0.494914919
  3
Step:   10; Total E =   -0.034898642
Ar    0.001228365    0.002456729    0.005895127
Ar    0.000014499    0.000028999    0.487819729
Ar    0.098757136    0.197514272   -0.493714856
